LAMMPS (18 Jun 2019)
### ---preamble--- ###
log ././lammps_files/test10.log
