LAMMPS (18 Jun 2019)
### ---preamble--- ###
log ./test.log
